version 3
run OneMasterClock-0-20250409-11:13:06-591
attr configname OneMasterClock
attr datetime 20250409-11:13:06
attr datetimef 20250409-111306
attr experiment OneMasterClock
attr inifile omnetpp.ini
attr iterationvars ""
attr iterationvarsd ""
attr iterationvarsf ""
attr measurement ""
attr network d6g.simulations.timesync.TimeSyncNetwork
attr processid 591
attr repetition 0
attr replication #0
attr resultdir results
attr runnumber 0
attr seedset 0
config image-path ../../../inet/images
config sim-time-limit 1s
config network d6g.simulations.timesync.TimeSyncNetwork
config description timesync
config **.timeTransmitter*.clock.oscillator.typename RandomDriftOscillator
config **.oscillator.changeInterval 12.5ms
config **.oscillator.driftRate "uniform(-100ppm, 100ppm)"
config **.oscillator.driftRateChange "uniform(-1ppm, 1ppm)"
config **.oscillator.driftRateChangeUpperLimit 100ppm
config **.oscillator.driftRateChangeLowerLimit -100ppm
config *.*.hasTimeSynchronization true
config *.detCom.*.hasTimeSynchronization true
config *.*.eth[*].bitrate 100Mbps
config *.*.*.eth[*].bitrate 100Mbps
config **.referenceClock "\"timeTransmitter.clock\""
config *.visualizer.typename IntegratedMultiCanvasVisualizer
config *.visualizer.infoVisualizer[*].displayInfos true
config *.timeTransmitter.gptp.masterPorts "[\"eth0\"]"
config *.detCom.dstt[*].gptp.slavePort "\"tt0\""
config *.detCom.dstt[*].gptp.masterPorts "[\"eth0\"]"
config *.detCom.nwtt.gptp.slavePort "\"eth0\""
config *.detCom.nwtt.gptp.masterPorts "[\"tt0\",\"tt1\"]"
config *.tsnDevice1.gptp.slavePort "\"eth0\""
config *.tsnDevice2.gptp.slavePort "\"eth0\""
config *.visualizer.dataLinkVisualizer[0].displayLinks true
config *.visualizer.dataLinkVisualizer[0].activityLevel "\"protocol\""
config *.visualizer.dataLinkVisualizer[0].packetFilter "\"GptpSync\""
config *.visualizer.dataLinkVisualizer[0].lineColor "\"blue2\""
config *.visualizer.numInfoVisualizers 3
config *.visualizer.infoVisualizer[0].modules "\"*.tsnClock.clock\""
config *.timeTransmitter.clock.displayStringTextFormat "\"time: %T\""
config *.visualizer.infoVisualizer[1].modules "\"*.tsnSwitch.clock\""
config *.visualizer.infoVisualizer[1].placementHint "\"topLeft\""
config *.visualizer.infoVisualizer[2].modules "\"*.tsnDevice*.clock\""
config *.visualizer.infoVisualizer[2].placementHint "\"bottom\""
config *.tsnDevice*.clock.displayStringTextFormat "\"diff: %d\""
config *.masterClock.clock.displayStringTextFormat "\"diff: %d\""

vector 0 TimeSyncNetwork.timeTransmitter.eth[0].phyLayer.interFrameGapInserter interpacketGap:vector ETV
attr interpolationmode sample-hold
attr recordingmode vector
attr source "count(interpacketGapStarted) - count(interpacketGapEnded)"
attr title "interpacket gap state"
attr type int
vector 1 TimeSyncNetwork.timeTransmitter.eth[0].phyLayer.transmitter transmitting:vector ETV
attr interpolationmode sample-hold
attr recordingmode vector
attr source "count(transmissionStarted) - count(transmissionEnded)"
attr title "transmitting state"
attr type int
vector 2 TimeSyncNetwork.timeTransmitter.udp passedUpPk:vector(count) ETV
attr interpolationmode none
attr recordingmode vector(count)
attr source packetSentToUpper
attr title "packets passed up, count"
vector 3 TimeSyncNetwork.timeTransmitter.udp droppedPkWrongPort:vector(count) ETV
attr interpolationmode none
attr recordingmode vector(count)
attr source packetDropReasonIsNoPortFound(packetDropped)
attr title "packets dropped (wrong port), count"
vector 4 TimeSyncNetwork.timeTransmitter.udp droppedPkBadChecksum:vector(count) ETV
attr interpolationmode none
attr recordingmode vector(count)
attr source packetDropReasonIsIncorrectlyReceived(packetDropped)
attr title "packets dropped (checksum error), count"
vector 5 TimeSyncNetwork.detCom.dstt[0].eth[0].phyLayer.interFrameGapInserter interpacketGap:vector ETV
attr interpolationmode sample-hold
attr recordingmode vector
attr source "count(interpacketGapStarted) - count(interpacketGapEnded)"
attr title "interpacket gap state"
attr type int
vector 6 TimeSyncNetwork.detCom.dstt[0].eth[0].phyLayer.transmitter transmitting:vector ETV
attr interpolationmode sample-hold
attr recordingmode vector
attr source "count(transmissionStarted) - count(transmissionEnded)"
attr title "transmitting state"
attr type int
vector 7 TimeSyncNetwork.detCom.dstt[0].tt[0].phyLayer.interFrameGapInserter interpacketGap:vector ETV
attr interpolationmode sample-hold
attr recordingmode vector
attr source "count(interpacketGapStarted) - count(interpacketGapEnded)"
attr title "interpacket gap state"
attr type int
vector 8 TimeSyncNetwork.detCom.dstt[0].tt[0].phyLayer.transmitter transmitting:vector ETV
attr interpolationmode sample-hold
attr recordingmode vector
attr source "count(transmissionStarted) - count(transmissionEnded)"
attr title "transmitting state"
attr type int
vector 9 TimeSyncNetwork.detCom.dstt[0].tt[1].phyLayer.interFrameGapInserter interpacketGap:vector ETV
attr interpolationmode sample-hold
attr recordingmode vector
attr source "count(interpacketGapStarted) - count(interpacketGapEnded)"
attr title "interpacket gap state"
attr type int
vector 10 TimeSyncNetwork.detCom.dstt[0].tt[1].phyLayer.transmitter transmitting:vector ETV
attr interpolationmode sample-hold
attr recordingmode vector
attr source "count(transmissionStarted) - count(transmissionEnded)"
attr title "transmitting state"
attr type int
vector 11 TimeSyncNetwork.detCom.dstt[1].eth[0].phyLayer.interFrameGapInserter interpacketGap:vector ETV
attr interpolationmode sample-hold
attr recordingmode vector
attr source "count(interpacketGapStarted) - count(interpacketGapEnded)"
attr title "interpacket gap state"
attr type int
vector 12 TimeSyncNetwork.detCom.dstt[1].eth[0].phyLayer.transmitter transmitting:vector ETV
attr interpolationmode sample-hold
attr recordingmode vector
attr source "count(transmissionStarted) - count(transmissionEnded)"
attr title "transmitting state"
attr type int
vector 13 TimeSyncNetwork.detCom.dstt[1].tt[0].phyLayer.interFrameGapInserter interpacketGap:vector ETV
attr interpolationmode sample-hold
attr recordingmode vector
attr source "count(interpacketGapStarted) - count(interpacketGapEnded)"
attr title "interpacket gap state"
attr type int
vector 14 TimeSyncNetwork.detCom.dstt[1].tt[0].phyLayer.transmitter transmitting:vector ETV
attr interpolationmode sample-hold
attr recordingmode vector
attr source "count(transmissionStarted) - count(transmissionEnded)"
attr title "transmitting state"
attr type int
vector 15 TimeSyncNetwork.detCom.dstt[1].tt[1].phyLayer.interFrameGapInserter interpacketGap:vector ETV
attr interpolationmode sample-hold
attr recordingmode vector
attr source "count(interpacketGapStarted) - count(interpacketGapEnded)"
attr title "interpacket gap state"
attr type int
vector 16 TimeSyncNetwork.detCom.dstt[1].tt[1].phyLayer.transmitter transmitting:vector ETV
attr interpolationmode sample-hold
attr recordingmode vector
attr source "count(transmissionStarted) - count(transmissionEnded)"
attr title "transmitting state"
attr type int
vector 17 TimeSyncNetwork.detCom.nwtt.eth[0].phyLayer.interFrameGapInserter interpacketGap:vector ETV
attr interpolationmode sample-hold
attr recordingmode vector
attr source "count(interpacketGapStarted) - count(interpacketGapEnded)"
attr title "interpacket gap state"
attr type int
vector 18 TimeSyncNetwork.detCom.nwtt.eth[0].phyLayer.transmitter transmitting:vector ETV
attr interpolationmode sample-hold
attr recordingmode vector
attr source "count(transmissionStarted) - count(transmissionEnded)"
attr title "transmitting state"
attr type int
vector 19 TimeSyncNetwork.detCom.nwtt.tt[0].phyLayer.interFrameGapInserter interpacketGap:vector ETV
attr interpolationmode sample-hold
attr recordingmode vector
attr source "count(interpacketGapStarted) - count(interpacketGapEnded)"
attr title "interpacket gap state"
attr type int
vector 20 TimeSyncNetwork.detCom.nwtt.tt[0].phyLayer.transmitter transmitting:vector ETV
attr interpolationmode sample-hold
attr recordingmode vector
attr source "count(transmissionStarted) - count(transmissionEnded)"
attr title "transmitting state"
attr type int
vector 21 TimeSyncNetwork.detCom.nwtt.tt[1].phyLayer.interFrameGapInserter interpacketGap:vector ETV
attr interpolationmode sample-hold
attr recordingmode vector
attr source "count(interpacketGapStarted) - count(interpacketGapEnded)"
attr title "interpacket gap state"
attr type int
vector 22 TimeSyncNetwork.detCom.nwtt.tt[1].phyLayer.transmitter transmitting:vector ETV
attr interpolationmode sample-hold
attr recordingmode vector
attr source "count(transmissionStarted) - count(transmissionEnded)"
attr title "transmitting state"
attr type int
vector 23 TimeSyncNetwork.tsnDevice1.eth[0].phyLayer.interFrameGapInserter interpacketGap:vector ETV
attr interpolationmode sample-hold
attr recordingmode vector
attr source "count(interpacketGapStarted) - count(interpacketGapEnded)"
attr title "interpacket gap state"
attr type int
vector 24 TimeSyncNetwork.tsnDevice1.eth[0].phyLayer.transmitter transmitting:vector ETV
attr interpolationmode sample-hold
attr recordingmode vector
attr source "count(transmissionStarted) - count(transmissionEnded)"
attr title "transmitting state"
attr type int
vector 25 TimeSyncNetwork.tsnDevice1.udp passedUpPk:vector(count) ETV
attr interpolationmode none
attr recordingmode vector(count)
attr source packetSentToUpper
attr title "packets passed up, count"
vector 26 TimeSyncNetwork.tsnDevice1.udp droppedPkWrongPort:vector(count) ETV
attr interpolationmode none
attr recordingmode vector(count)
attr source packetDropReasonIsNoPortFound(packetDropped)
attr title "packets dropped (wrong port), count"
vector 27 TimeSyncNetwork.tsnDevice1.udp droppedPkBadChecksum:vector(count) ETV
attr interpolationmode none
attr recordingmode vector(count)
attr source packetDropReasonIsIncorrectlyReceived(packetDropped)
attr title "packets dropped (checksum error), count"
vector 28 TimeSyncNetwork.tsnDevice2.eth[0].phyLayer.interFrameGapInserter interpacketGap:vector ETV
attr interpolationmode sample-hold
attr recordingmode vector
attr source "count(interpacketGapStarted) - count(interpacketGapEnded)"
attr title "interpacket gap state"
attr type int
vector 29 TimeSyncNetwork.tsnDevice2.eth[0].phyLayer.transmitter transmitting:vector ETV
attr interpolationmode sample-hold
attr recordingmode vector
attr source "count(transmissionStarted) - count(transmissionEnded)"
attr title "transmitting state"
attr type int
vector 30 TimeSyncNetwork.tsnDevice2.udp passedUpPk:vector(count) ETV
attr interpolationmode none
attr recordingmode vector(count)
attr source packetSentToUpper
attr title "packets passed up, count"
vector 31 TimeSyncNetwork.tsnDevice2.udp droppedPkWrongPort:vector(count) ETV
attr interpolationmode none
attr recordingmode vector(count)
attr source packetDropReasonIsNoPortFound(packetDropped)
attr title "packets dropped (wrong port), count"
vector 32 TimeSyncNetwork.tsnDevice2.udp droppedPkBadChecksum:vector(count) ETV
attr interpolationmode none
attr recordingmode vector(count)
attr source packetDropReasonIsIncorrectlyReceived(packetDropped)
attr title "packets dropped (checksum error), count"
vector 33 TimeSyncNetwork.timeTransmitter.clock timeChanged:vector ETV
attr interpolationmode linear
attr recordingmode vector
attr title "Clock time"
vector 34 TimeSyncNetwork.detCom.dstt[0].clock timeChanged:vector ETV
attr interpolationmode linear
attr recordingmode vector
attr title "Clock time"
vector 35 TimeSyncNetwork.detCom.dstt[1].clock timeChanged:vector ETV
attr interpolationmode linear
attr recordingmode vector
attr title "Clock time"
vector 36 TimeSyncNetwork.detCom.nwtt.clock timeChanged:vector ETV
attr interpolationmode linear
attr recordingmode vector
attr title "Clock time"
vector 37 TimeSyncNetwork.tsnDevice1.clock timeChanged:vector ETV
attr interpolationmode linear
attr recordingmode vector
attr title "Clock time"
vector 38 TimeSyncNetwork.tsnDevice2.clock timeChanged:vector ETV
attr interpolationmode linear
attr recordingmode vector
attr title "Clock time"
vector 39 TimeSyncNetwork.detCom.nwtt.ethernet.macHeaderInserter incomingPacketLengths:vector ETV
attr interpolationmode none
attr recordingmode vector
attr source "packetLength(merge(packetPushedIn, packetPulledIn))"
attr title "incoming packet lengths"
attr unit b
vector 40 TimeSyncNetwork.detCom.nwtt.ethernet.macHeaderInserter outgoingPacketLengths:vector ETV
attr interpolationmode none
attr recordingmode vector
attr source "packetLength(merge(packetPushedOut, packetPulledOut))"
attr title "outgoing packet lengths"
attr unit b
vector 41 TimeSyncNetwork.detCom.nwtt.ethernet.paddingInserter incomingPacketLengths:vector ETV
attr interpolationmode none
attr recordingmode vector
attr source "packetLength(merge(packetPushedIn, packetPulledIn))"
attr title "incoming packet lengths"
attr unit b
vector 42 TimeSyncNetwork.detCom.nwtt.ethernet.paddingInserter outgoingPacketLengths:vector ETV
attr interpolationmode none
attr recordingmode vector
attr source "packetLength(merge(packetPushedOut, packetPulledOut))"
attr title "outgoing packet lengths"
attr unit b
vector 43 TimeSyncNetwork.detCom.nwtt.ethernet.fcsInserter incomingPacketLengths:vector ETV
attr interpolationmode none
attr recordingmode vector
attr source "packetLength(merge(packetPushedIn, packetPulledIn))"
attr title "incoming packet lengths"
attr unit b
vector 44 TimeSyncNetwork.detCom.nwtt.ethernet.fcsInserter outgoingPacketLengths:vector ETV
attr interpolationmode none
attr recordingmode vector
attr source "packetLength(merge(packetPushedOut, packetPulledOut))"
attr title "outgoing packet lengths"
attr unit b
vector 45 TimeSyncNetwork.detCom.nwtt.eth[0].macLayer.queue incomingPacketLengths:vector ETV
attr interpolationmode none
attr recordingmode vector
attr source packetLength(packetPushStarted)
attr title "incoming packet lengths"
attr unit b
vector 46 TimeSyncNetwork.detCom.nwtt.eth[0].macLayer.queue queueLength:vector ETV
attr autoWarmupFilter false
attr interpolationmode sample-hold
attr recordingmode vector
attr source "warmup(atomic(constant0(packetPushEnded) + count(packetPushStarted) - count(packetPulled) - count(packetRemoved) - count(packetDropped)))"
attr title "queue length"
attr unit pk
vector 47 TimeSyncNetwork.detCom.nwtt.eth[0].macLayer.queue queueBitLength:vector ETV
attr autoWarmupFilter false
attr interpolationmode sample-hold
attr recordingmode vector
attr source "warmup(atomic(constant0(packetPushEnded) + sum(packetLength(packetPushStarted)) - sum(packetLength(packetPulled)) - sum(packetLength(packetRemoved)) - sum(packetLength(packetDropped))))"
attr title "queue bit length"
attr unit b
vector 48 TimeSyncNetwork.tsnDevice1.ethernet.macHeaderInserter incomingPacketLengths:vector ETV
attr interpolationmode none
attr recordingmode vector
attr source "packetLength(merge(packetPushedIn, packetPulledIn))"
attr title "incoming packet lengths"
attr unit b
vector 49 TimeSyncNetwork.tsnDevice1.ethernet.macHeaderInserter outgoingPacketLengths:vector ETV
attr interpolationmode none
attr recordingmode vector
attr source "packetLength(merge(packetPushedOut, packetPulledOut))"
attr title "outgoing packet lengths"
attr unit b
vector 50 TimeSyncNetwork.tsnDevice1.ethernet.paddingInserter incomingPacketLengths:vector ETV
attr interpolationmode none
attr recordingmode vector
attr source "packetLength(merge(packetPushedIn, packetPulledIn))"
attr title "incoming packet lengths"
attr unit b
vector 51 TimeSyncNetwork.tsnDevice1.ethernet.paddingInserter outgoingPacketLengths:vector ETV
attr interpolationmode none
attr recordingmode vector
attr source "packetLength(merge(packetPushedOut, packetPulledOut))"
attr title "outgoing packet lengths"
attr unit b
vector 52 TimeSyncNetwork.tsnDevice1.ethernet.fcsInserter incomingPacketLengths:vector ETV
attr interpolationmode none
attr recordingmode vector
attr source "packetLength(merge(packetPushedIn, packetPulledIn))"
attr title "incoming packet lengths"
attr unit b
vector 53 TimeSyncNetwork.tsnDevice1.ethernet.fcsInserter outgoingPacketLengths:vector ETV
attr interpolationmode none
attr recordingmode vector
attr source "packetLength(merge(packetPushedOut, packetPulledOut))"
attr title "outgoing packet lengths"
attr unit b
vector 54 TimeSyncNetwork.tsnDevice1.eth[0].macLayer.queue incomingPacketLengths:vector ETV
attr interpolationmode none
attr recordingmode vector
attr source packetLength(packetPushStarted)
attr title "incoming packet lengths"
attr unit b
vector 55 TimeSyncNetwork.tsnDevice1.eth[0].macLayer.queue queueLength:vector ETV
attr autoWarmupFilter false
attr interpolationmode sample-hold
attr recordingmode vector
attr source "warmup(atomic(constant0(packetPushEnded) + count(packetPushStarted) - count(packetPulled) - count(packetRemoved) - count(packetDropped)))"
attr title "queue length"
attr unit pk
vector 56 TimeSyncNetwork.tsnDevice1.eth[0].macLayer.queue queueBitLength:vector ETV
attr autoWarmupFilter false
attr interpolationmode sample-hold
attr recordingmode vector
attr source "warmup(atomic(constant0(packetPushEnded) + sum(packetLength(packetPushStarted)) - sum(packetLength(packetPulled)) - sum(packetLength(packetRemoved)) - sum(packetLength(packetDropped))))"
attr title "queue bit length"
attr unit b
vector 57 TimeSyncNetwork.tsnDevice2.ethernet.macHeaderInserter incomingPacketLengths:vector ETV
attr interpolationmode none
attr recordingmode vector
attr source "packetLength(merge(packetPushedIn, packetPulledIn))"
attr title "incoming packet lengths"
attr unit b
vector 58 TimeSyncNetwork.tsnDevice2.ethernet.macHeaderInserter outgoingPacketLengths:vector ETV
attr interpolationmode none
attr recordingmode vector
attr source "packetLength(merge(packetPushedOut, packetPulledOut))"
attr title "outgoing packet lengths"
attr unit b
vector 59 TimeSyncNetwork.tsnDevice2.ethernet.paddingInserter incomingPacketLengths:vector ETV
attr interpolationmode none
attr recordingmode vector
attr source "packetLength(merge(packetPushedIn, packetPulledIn))"
attr title "incoming packet lengths"
attr unit b
vector 60 TimeSyncNetwork.tsnDevice2.ethernet.paddingInserter outgoingPacketLengths:vector ETV
attr interpolationmode none
attr recordingmode vector
attr source "packetLength(merge(packetPushedOut, packetPulledOut))"
attr title "outgoing packet lengths"
attr unit b
vector 61 TimeSyncNetwork.tsnDevice2.ethernet.fcsInserter incomingPacketLengths:vector ETV
attr interpolationmode none
attr recordingmode vector
attr source "packetLength(merge(packetPushedIn, packetPulledIn))"
attr title "incoming packet lengths"
attr unit b
vector 62 TimeSyncNetwork.tsnDevice2.ethernet.fcsInserter outgoingPacketLengths:vector ETV
attr interpolationmode none
attr recordingmode vector
attr source "packetLength(merge(packetPushedOut, packetPulledOut))"
attr title "outgoing packet lengths"
attr unit b
vector 63 TimeSyncNetwork.tsnDevice2.eth[0].macLayer.queue incomingPacketLengths:vector ETV
attr interpolationmode none
attr recordingmode vector
attr source packetLength(packetPushStarted)
attr title "incoming packet lengths"
attr unit b
vector 64 TimeSyncNetwork.tsnDevice2.eth[0].macLayer.queue queueLength:vector ETV
attr autoWarmupFilter false
attr interpolationmode sample-hold
attr recordingmode vector
attr source "warmup(atomic(constant0(packetPushEnded) + count(packetPushStarted) - count(packetPulled) - count(packetRemoved) - count(packetDropped)))"
attr title "queue length"
attr unit pk
vector 65 TimeSyncNetwork.tsnDevice2.eth[0].macLayer.queue queueBitLength:vector ETV
attr autoWarmupFilter false
attr interpolationmode sample-hold
attr recordingmode vector
attr source "warmup(atomic(constant0(packetPushEnded) + sum(packetLength(packetPushStarted)) - sum(packetLength(packetPulled)) - sum(packetLength(packetRemoved)) - sum(packetLength(packetDropped))))"
attr title "queue bit length"
attr unit b
vector 66 TimeSyncNetwork.detCom.dstt[0].ethernet.macHeaderInserter incomingPacketLengths:vector ETV
attr interpolationmode none
attr recordingmode vector
attr source "packetLength(merge(packetPushedIn, packetPulledIn))"
attr title "incoming packet lengths"
attr unit b
vector 67 TimeSyncNetwork.detCom.dstt[0].ethernet.macHeaderInserter outgoingPacketLengths:vector ETV
attr interpolationmode none
attr recordingmode vector
attr source "packetLength(merge(packetPushedOut, packetPulledOut))"
attr title "outgoing packet lengths"
attr unit b
vector 68 TimeSyncNetwork.detCom.dstt[0].ethernet.paddingInserter incomingPacketLengths:vector ETV
attr interpolationmode none
attr recordingmode vector
attr source "packetLength(merge(packetPushedIn, packetPulledIn))"
attr title "incoming packet lengths"
attr unit b
vector 69 TimeSyncNetwork.detCom.dstt[0].ethernet.paddingInserter outgoingPacketLengths:vector ETV
attr interpolationmode none
attr recordingmode vector
attr source "packetLength(merge(packetPushedOut, packetPulledOut))"
attr title "outgoing packet lengths"
attr unit b
vector 70 TimeSyncNetwork.detCom.dstt[0].ethernet.fcsInserter incomingPacketLengths:vector ETV
attr interpolationmode none
attr recordingmode vector
attr source "packetLength(merge(packetPushedIn, packetPulledIn))"
attr title "incoming packet lengths"
attr unit b
vector 71 TimeSyncNetwork.detCom.dstt[0].ethernet.fcsInserter outgoingPacketLengths:vector ETV
attr interpolationmode none
attr recordingmode vector
attr source "packetLength(merge(packetPushedOut, packetPulledOut))"
attr title "outgoing packet lengths"
attr unit b
vector 72 TimeSyncNetwork.detCom.dstt[0].tt[0].macLayer.queue incomingPacketLengths:vector ETV
attr interpolationmode none
attr recordingmode vector
attr source packetLength(packetPushStarted)
attr title "incoming packet lengths"
attr unit b
vector 73 TimeSyncNetwork.detCom.dstt[0].tt[0].macLayer.queue queueLength:vector ETV
attr autoWarmupFilter false
attr interpolationmode sample-hold
attr recordingmode vector
attr source "warmup(atomic(constant0(packetPushEnded) + count(packetPushStarted) - count(packetPulled) - count(packetRemoved) - count(packetDropped)))"
attr title "queue length"
attr unit pk
vector 74 TimeSyncNetwork.detCom.dstt[0].tt[0].macLayer.queue queueBitLength:vector ETV
attr autoWarmupFilter false
attr interpolationmode sample-hold
attr recordingmode vector
attr source "warmup(atomic(constant0(packetPushEnded) + sum(packetLength(packetPushStarted)) - sum(packetLength(packetPulled)) - sum(packetLength(packetRemoved)) - sum(packetLength(packetDropped))))"
attr title "queue bit length"
attr unit b
vector 75 TimeSyncNetwork.detCom.dstt[1].ethernet.macHeaderInserter incomingPacketLengths:vector ETV
attr interpolationmode none
attr recordingmode vector
attr source "packetLength(merge(packetPushedIn, packetPulledIn))"
attr title "incoming packet lengths"
attr unit b
vector 76 TimeSyncNetwork.detCom.dstt[1].ethernet.macHeaderInserter outgoingPacketLengths:vector ETV
attr interpolationmode none
attr recordingmode vector
attr source "packetLength(merge(packetPushedOut, packetPulledOut))"
attr title "outgoing packet lengths"
attr unit b
vector 77 TimeSyncNetwork.detCom.dstt[1].ethernet.paddingInserter incomingPacketLengths:vector ETV
attr interpolationmode none
attr recordingmode vector
attr source "packetLength(merge(packetPushedIn, packetPulledIn))"
attr title "incoming packet lengths"
attr unit b
vector 78 TimeSyncNetwork.detCom.dstt[1].ethernet.paddingInserter outgoingPacketLengths:vector ETV
attr interpolationmode none
attr recordingmode vector
attr source "packetLength(merge(packetPushedOut, packetPulledOut))"
attr title "outgoing packet lengths"
attr unit b
vector 79 TimeSyncNetwork.detCom.dstt[1].ethernet.fcsInserter incomingPacketLengths:vector ETV
attr interpolationmode none
attr recordingmode vector
attr source "packetLength(merge(packetPushedIn, packetPulledIn))"
attr title "incoming packet lengths"
attr unit b
vector 80 TimeSyncNetwork.detCom.dstt[1].ethernet.fcsInserter outgoingPacketLengths:vector ETV
attr interpolationmode none
attr recordingmode vector
attr source "packetLength(merge(packetPushedOut, packetPulledOut))"
attr title "outgoing packet lengths"
attr unit b
vector 81 TimeSyncNetwork.detCom.dstt[1].tt[0].macLayer.queue incomingPacketLengths:vector ETV
attr interpolationmode none
attr recordingmode vector
attr source packetLength(packetPushStarted)
attr title "incoming packet lengths"
attr unit b
vector 82 TimeSyncNetwork.detCom.dstt[1].tt[0].macLayer.queue queueLength:vector ETV
attr autoWarmupFilter false
attr interpolationmode sample-hold
attr recordingmode vector
attr source "warmup(atomic(constant0(packetPushEnded) + count(packetPushStarted) - count(packetPulled) - count(packetRemoved) - count(packetDropped)))"
attr title "queue length"
attr unit pk
vector 83 TimeSyncNetwork.detCom.dstt[1].tt[0].macLayer.queue queueBitLength:vector ETV
attr autoWarmupFilter false
attr interpolationmode sample-hold
attr recordingmode vector
attr source "warmup(atomic(constant0(packetPushEnded) + sum(packetLength(packetPushStarted)) - sum(packetLength(packetPulled)) - sum(packetLength(packetRemoved)) - sum(packetLength(packetDropped))))"
attr title "queue bit length"
attr unit b
vector 84 TimeSyncNetwork.detCom.nwtt.eth[0].macLayer.queue queueingTime:vector ETV
attr interpolationmode none
attr recordingmode vector
attr source queueingTime(packetPulled)
attr title "queueing times"
attr unit s
vector 85 TimeSyncNetwork.detCom.nwtt.eth[0].macLayer.queue outgoingPacketLengths:vector ETV
attr interpolationmode none
attr recordingmode vector
attr source packetLength(packetPulled)
attr title "outgoing packet lengths"
attr unit b
vector 86 TimeSyncNetwork.detCom.nwtt.eth[0].macLayer.server incomingPacketLengths:vector ETV
attr interpolationmode none
attr recordingmode vector
attr source packetLength(packetPulled)
attr title "incoming packet lengths"
attr unit b
vector 87 TimeSyncNetwork.detCom.nwtt.eth[0].macLayer.server outgoingPacketLengths:vector ETV
attr interpolationmode none
attr recordingmode vector
attr source packetLength(packetPushed)
attr title "outgoing packet lengths"
attr unit b
vector 88 TimeSyncNetwork.detCom.nwtt.eth[0].macLayer.outboundEmitter incomingPacketLengths:vector ETV
attr interpolationmode none
attr recordingmode vector
attr source "packetLength(merge(packetPushedIn, packetPulledIn))"
attr title "incoming packet lengths"
attr unit b
vector 89 TimeSyncNetwork.detCom.nwtt.eth[0].macLayer.outboundEmitter outgoingPacketLengths:vector ETV
attr interpolationmode none
attr recordingmode vector
attr source "packetLength(merge(packetPushedOut, packetPulledOut))"
attr title "outgoing packet lengths"
attr unit b
vector 90 TimeSyncNetwork.detCom.nwtt.eth[0].phyLayer.phyHeaderInserter incomingPacketLengths:vector ETV
attr interpolationmode none
attr recordingmode vector
attr source "packetLength(merge(packetPushedIn, packetPulledIn))"
attr title "incoming packet lengths"
attr unit b
vector 91 TimeSyncNetwork.detCom.nwtt.eth[0].phyLayer.phyHeaderInserter outgoingPacketLengths:vector ETV
attr interpolationmode none
attr recordingmode vector
attr source "packetLength(merge(packetPushedOut, packetPulledOut))"
attr title "outgoing packet lengths"
attr unit b
vector 92 TimeSyncNetwork.detCom.nwtt.eth[0].phyLayer.outboundEmitter incomingPacketLengths:vector ETV
attr interpolationmode none
attr recordingmode vector
attr source "packetLength(merge(packetPushedIn, packetPulledIn))"
attr title "incoming packet lengths"
attr unit b
vector 93 TimeSyncNetwork.detCom.nwtt.eth[0].phyLayer.outboundEmitter outgoingPacketLengths:vector ETV
attr interpolationmode none
attr recordingmode vector
attr source "packetLength(merge(packetPushedOut, packetPulledOut))"
attr title "outgoing packet lengths"
attr unit b
vector 94 TimeSyncNetwork.tsnDevice1.eth[0].macLayer.queue queueingTime:vector ETV
attr interpolationmode none
attr recordingmode vector
attr source queueingTime(packetPulled)
attr title "queueing times"
attr unit s
vector 95 TimeSyncNetwork.tsnDevice1.eth[0].macLayer.queue outgoingPacketLengths:vector ETV
attr interpolationmode none
attr recordingmode vector
attr source packetLength(packetPulled)
attr title "outgoing packet lengths"
attr unit b
vector 96 TimeSyncNetwork.tsnDevice1.eth[0].macLayer.server incomingPacketLengths:vector ETV
attr interpolationmode none
attr recordingmode vector
attr source packetLength(packetPulled)
attr title "incoming packet lengths"
attr unit b
vector 97 TimeSyncNetwork.tsnDevice1.eth[0].macLayer.server outgoingPacketLengths:vector ETV
attr interpolationmode none
attr recordingmode vector
attr source packetLength(packetPushed)
attr title "outgoing packet lengths"
attr unit b
vector 98 TimeSyncNetwork.tsnDevice1.eth[0].macLayer.outboundEmitter incomingPacketLengths:vector ETV
attr interpolationmode none
attr recordingmode vector
attr source "packetLength(merge(packetPushedIn, packetPulledIn))"
attr title "incoming packet lengths"
attr unit b
vector 99 TimeSyncNetwork.tsnDevice1.eth[0].macLayer.outboundEmitter outgoingPacketLengths:vector ETV
attr interpolationmode none
attr recordingmode vector
attr source "packetLength(merge(packetPushedOut, packetPulledOut))"
attr title "outgoing packet lengths"
attr unit b
vector 100 TimeSyncNetwork.tsnDevice1.eth[0].phyLayer.phyHeaderInserter incomingPacketLengths:vector ETV
attr interpolationmode none
attr recordingmode vector
attr source "packetLength(merge(packetPushedIn, packetPulledIn))"
attr title "incoming packet lengths"
attr unit b
vector 101 TimeSyncNetwork.tsnDevice1.eth[0].phyLayer.phyHeaderInserter outgoingPacketLengths:vector ETV
attr interpolationmode none
attr recordingmode vector
attr source "packetLength(merge(packetPushedOut, packetPulledOut))"
attr title "outgoing packet lengths"
attr unit b
vector 102 TimeSyncNetwork.tsnDevice1.eth[0].phyLayer.outboundEmitter incomingPacketLengths:vector ETV
attr interpolationmode none
attr recordingmode vector
attr source "packetLength(merge(packetPushedIn, packetPulledIn))"