file 1885628 1745322205                                         
version 3
run Unidirectional_LeftToRight-0-20250422-11:41:59-1967
attr configname Unidirectional_LeftToRight
attr datetime 20250422-11:41:59
attr datetimef 20250422-114159
attr experiment Unidirectional_LeftToRight
attr inifile omnetpp.ini
attr iterationvars ""
attr iterationvarsd ""
attr iterationvarsf ""
attr measurement ""
attr network Baseline
attr processid 1967
attr repetition 0
attr replication #0
attr resultdir results
attr runnumber 0
attr seedset 0
config image-path ../../../inet/images
config extends General
config network Baseline
config description "Basic configuration for networks with a unidirectional communication from left to right"
config *.detCom.dstt[0].delayUplink "rngProvider(\"histogramContainer\",\"Uplink\")"
config *.device1.numApps 1
config *.device1.app[0].typename UdpSourceApp
config *.device1.app[0].io.destAddress "\"device2\""
config *.device1.app[0].io.destPort 1001
config *.device1.app[0].source.packetLength "1000B - 54B"
config *.device1.app[0].source.productionInterval 10ms
config *.device1.hasOutgoingStreams true
config *.device2.numApps 1
config *.device2.app[0].typename UdpSinkApp
config *.device2.app[0].io.localPort 1001
config sim-time-limit 60s
config description "General configuration"
config **.displayGateSchedules false
config **.gateFilter "\"**.eth[1].**\""
config **.gateScheduleVisualizer.height 16
config **.gateScheduleVisualizer.placementHint "\"top\""
config *.histogramContainer.histograms "{Uplink: \"../../../deterministic6g_data/PD-Wireless-5G-1/s1-UL_wall.xml\", Downlink: \"../../../deterministic6g_data/PD-Wireless-5G-1/s10-DL_wall.xml\"}"
config *.scenarioManager.script "xmldoc(\"scenario.xml\")"

vector 0 Baseline.device1.eth[0].phyLayer.interFrameGapInserter interpacketGap:vector ETV
attr interpolationmode sample-hold
attr recordingmode vector
attr source "count(interpacketGapStarted) - count(interpacketGapEnded)"
attr title "interpacket gap state"
attr type int
vector 1 Baseline.device1.eth[0].phyLayer.transmitter transmitting:vector ETV
attr interpolationmode sample-hold
attr recordingmode vector
attr source "count(transmissionStarted) - count(transmissionEnded)"
attr title "transmitting state"
attr type int
vector 2 Baseline.device1.udp passedUpPk:vector(count) ETV
attr interpolationmode none
attr recordingmode vector(count)
attr source packetSentToUpper
attr title "packets passed up, count"
vector 3 Baseline.device1.udp droppedPkWrongPort:vector(count) ETV
attr interpolationmode none
attr recordingmode vector(count)
attr source packetDropReasonIsNoPortFound(packetDropped)
attr title "packets dropped (wrong port), count"
vector 4 Baseline.device1.udp droppedPkBadChecksum:vector(count) ETV
attr interpolationmode none
attr recordingmode vector(count)
attr source packetDropReasonIsIncorrectlyReceived(packetDropped)
attr title "packets dropped (checksum error), count"
vector 5 Baseline.detCom.dstt[0].eth[0].phyLayer.interFrameGapInserter interpacketGap:vector ETV
attr interpolationmode sample-hold
attr recordingmode vector
attr source "count(interpacketGapStarted) - count(interpacketGapEnded)"
attr title "interpacket gap state"
attr type int
vector 6 Baseline.detCom.dstt[0].eth[0].phyLayer.transmitter transmitting:vector ETV
attr interpolationmode sample-hold
attr recordingmode vector
attr source "count(transmissionStarted) - count(transmissionEnded)"
attr title "transmitting state"
attr type int
vector 7 Baseline.detCom.dstt[0].tt[0].phyLayer.interFrameGapInserter interpacketGap:vector ETV
attr interpolationmode sample-hold
attr recordingmode vector
attr source "count(interpacketGapStarted) - count(interpacketGapEnded)"
attr title "interpacket gap state"
attr type int
vector 8 Baseline.detCom.dstt[0].tt[0].phyLayer.transmitter transmitting:vector ETV
attr interpolationmode sample-hold
attr recordingmode vector
attr source "count(transmissionStarted) - count(transmissionEnded)"
attr title "transmitting state"
attr type int
vector 9 Baseline.detCom.nwtt.eth[0].phyLayer.interFrameGapInserter interpacketGap:vector ETV
attr interpolationmode sample-hold
attr recordingmode vector
attr source "count(interpacketGapStarted) - count(interpacketGapEnded)"
attr title "interpacket gap state"
attr type int
vector 10 Baseline.detCom.nwtt.eth[0].phyLayer.transmitter transmitting:vector ETV
attr interpolationmode sample-hold
attr recordingmode vector
attr source "count(transmissionStarted) - count(transmissionEnded)"
attr title "transmitting state"
attr type int
vector 11 Baseline.detCom.nwtt.tt[0].phyLayer.interFrameGapInserter interpacketGap:vector ETV
attr interpolationmode sample-hold
attr recordingmode vector
attr source "count(interpacketGapStarted) - count(interpacketGapEnded)"
attr title "interpacket gap state"
attr type int
vector 12 Baseline.detCom.nwtt.tt[0].phyLayer.transmitter transmitting:vector ETV
attr interpolationmode sample-hold
attr recordingmode vector
attr source "count(transmissionStarted) - count(transmissionEnded)"
attr title "transmitting state"
attr type int
vector 13 Baseline.bridge1.eth[0].phyLayer.interFrameGapInserter interpacketGap:vector ETV
attr interpolationmode sample-hold
attr recordingmode vector
attr source "count(interpacketGapStarted) - count(interpacketGapEnded)"
attr title "interpacket gap state"
attr type int
vector 14 Baseline.bridge1.eth[0].phyLayer.transmitter transmitting:vector ETV
attr interpolationmode sample-hold
attr recordingmode vector
attr source "count(transmissionStarted) - count(transmissionEnded)"
attr title "transmitting state"
attr type int
vector 15 Baseline.bridge1.eth[1].phyLayer.interFrameGapInserter interpacketGap:vector ETV
attr interpolationmode sample-hold
attr recordingmode vector
attr source "count(interpacketGapStarted) - count(interpacketGapEnded)"
attr title "interpacket gap state"
attr type int
vector 16 Baseline.bridge1.eth[1].phyLayer.transmitter transmitting:vector ETV
attr interpolationmode sample-hold
attr recordingmode vector
attr source "count(transmissionStarted) - count(transmissionEnded)"
attr title "transmitting state"
attr type int
vector 17 Baseline.bridge2.eth[0].phyLayer.interFrameGapInserter interpacketGap:vector ETV
attr interpolationmode sample-hold
attr recordingmode vector
attr source "count(interpacketGapStarted) - count(interpacketGapEnded)"
attr title "interpacket gap state"
attr type int
vector 18 Baseline.bridge2.eth[0].phyLayer.transmitter transmitting:vector ETV
attr interpolationmode sample-hold
attr recordingmode vector
attr source "count(transmissionStarted) - count(transmissionEnded)"
attr title "transmitting state"
attr type int
vector 19 Baseline.bridge2.eth[1].phyLayer.interFrameGapInserter interpacketGap:vector ETV
attr interpolationmode sample-hold
attr recordingmode vector
attr source "count(interpacketGapStarted) - count(interpacketGapEnded)"
attr title "interpacket gap state"
attr type int
vector 20 Baseline.bridge2.eth[1].phyLayer.transmitter transmitting:vector ETV
attr interpolationmode sample-hold
attr recordingmode vector
attr source "count(transmissionStarted) - count(transmissionEnded)"
attr title "transmitting state"
attr type int
vector 21 Baseline.device2.eth[0].phyLayer.interFrameGapInserter interpacketGap:vector ETV
attr interpolationmode sample-hold
attr recordingmode vector
attr source "count(interpacketGapStarted) - count(interpacketGapEnded)"
attr title "interpacket gap state"
attr type int
vector 22 Baseline.device2.eth[0].phyLayer.transmitter transmitting:vector ETV
attr interpolationmode sample-hold
attr recordingmode vector
attr source "count(transmissionStarted) - count(transmissionEnded)"
attr title "transmitting state"
attr type int
vector 23 Baseline.device2.udp passedUpPk:vector(count) ETV
attr interpolationmode none
attr recordingmode vector(count)
attr source packetSentToUpper
attr title "packets passed up, count"
vector 24 Baseline.device2.udp droppedPkWrongPort:vector(count) ETV
attr interpolationmode none
attr recordingmode vector(count)
attr source packetDropReasonIsNoPortFound(packetDropped)
attr title "packets dropped (wrong port), count"
vector 25 Baseline.device2.udp droppedPkBadChecksum:vector(count) ETV
attr interpolationmode none
attr recordingmode vector(count)
attr source packetDropReasonIsIncorrectlyReceived(packetDropped)
attr title "packets dropped (checksum error), count"
vector 26 Baseline.device1.app[0].source packetLengths:vector ETV
attr interpolationmode none
attr recordingmode vector
attr source packetLength(packetPushed)
attr title "packet lengths"
attr unit b
vector 27 Baseline.device1.eth[0].macLayer.queue.transmissionGate[0] gateState:vector ETV
attr enum CLOSED,OPEN
attr interpolationmode sample-hold
attr recordingmode vector
attr source gateStateChanged
attr title "gate state"
attr type enum
vector 28 Baseline.device1.eth[0].macLayer.queue.transmissionGate[0] guardBandState:vector ETV
attr enum ON,OFF
attr interpolationmode sample-hold
attr recordingmode vector
attr source guardBandStateChanged
attr title "guard band state"
attr type enum
vector 29 Baseline.device1.eth[0].macLayer.queue.transmissionGate[1] gateState:vector ETV
attr enum CLOSED,OPEN
attr interpolationmode sample-hold
attr recordingmode vector
attr source gateStateChanged
attr title "gate state"
attr type enum
vector 30 Baseline.device1.eth[0].macLayer.queue.transmissionGate[1] guardBandState:vector ETV
attr enum ON,OFF
attr interpolationmode sample-hold
attr recordingmode vector
attr source guardBandStateChanged
attr title "guard band state"
attr type enum
vector 31 Baseline.detCom.dstt[0].eth[0].macLayer.queue.transmissionGate[0] gateState:vector ETV
attr enum CLOSED,OPEN
attr interpolationmode sample-hold
attr recordingmode vector
attr source gateStateChanged
attr title "gate state"
attr type enum
vector 32 Baseline.detCom.dstt[0].eth[0].macLayer.queue.transmissionGate[0] guardBandState:vector ETV
attr enum ON,OFF
attr interpolationmode sample-hold
attr recordingmode vector
attr source guardBandStateChanged
attr title "guard band state"
attr type enum
vector 33 Baseline.detCom.dstt[0].eth[0].macLayer.queue.transmissionGate[1] gateState:vector ETV
attr enum CLOSED,OPEN
attr interpolationmode sample-hold
attr recordingmode vector
attr source gateStateChanged
attr title "gate state"
attr type enum
vector 34 Baseline.detCom.dstt[0].eth[0].macLayer.queue.transmissionGate[1] guardBandState:vector ETV
attr enum ON,OFF
attr interpolationmode sample-hold
attr recordingmode vector
attr source guardBandStateChanged
attr title "guard band state"
attr type enum
vector 35 Baseline.detCom.dstt[0].tt[0].macLayer.queue.transmissionGate[0] gateState:vector ETV
attr enum CLOSED,OPEN
attr interpolationmode sample-hold
attr recordingmode vector
attr source gateStateChanged
attr title "gate state"
attr type enum
vector 36 Baseline.detCom.dstt[0].tt[0].macLayer.queue.transmissionGate[0] guardBandState:vector ETV
attr enum ON,OFF
attr interpolationmode sample-hold
attr recordingmode vector
attr source guardBandStateChanged
attr title "guard band state"
attr type enum
vector 37 Baseline.detCom.dstt[0].tt[0].macLayer.queue.transmissionGate[1] gateState:vector ETV
attr enum CLOSED,OPEN
attr interpolationmode sample-hold
attr recordingmode vector
attr source gateStateChanged
attr title "gate state"
attr type enum
vector 38 Baseline.detCom.dstt[0].tt[0].macLayer.queue.transmissionGate[1] guardBandState:vector ETV
attr enum ON,OFF
attr interpolationmode sample-hold
attr recordingmode vector
attr source guardBandStateChanged
attr title "guard band state"
attr type enum
vector 39 Baseline.detCom.dstt[0].tt[0].macLayer.queue.transmissionGate[2] gateState:vector ETV
attr enum CLOSED,OPEN
attr interpolationmode sample-hold
attr recordingmode vector
attr source gateStateChanged
attr title "gate state"
attr type enum
vector 40 Baseline.detCom.dstt[0].tt[0].macLayer.queue.transmissionGate[2] guardBandState:vector ETV
attr enum ON,OFF
attr interpolationmode sample-hold
attr recordingmode vector
attr source guardBandStateChanged
attr title "guard band state"
attr type enum
vector 41 Baseline.detCom.dstt[0].tt[0].macLayer.queue.transmissionGate[3] gateState:vector ETV
attr enum CLOSED,OPEN
attr interpolationmode sample-hold
attr recordingmode vector
attr source gateStateChanged
attr title "gate state"
attr type enum
vector 42 Baseline.detCom.dstt[0].tt[0].macLayer.queue.transmissionGate[3] guardBandState:vector ETV
attr enum ON,OFF
attr interpolationmode sample-hold
attr recordingmode vector
attr source guardBandStateChanged
attr title "guard band state"
attr type enum
vector 43 Baseline.detCom.dstt[0].tt[0].macLayer.queue.transmissionGate[4] gateState:vector ETV
attr enum CLOSED,OPEN
attr interpolationmode sample-hold
attr recordingmode vector
attr source gateStateChanged
attr title "gate state"
attr type enum
vector 44 Baseline.detCom.dstt[0].tt[0].macLayer.queue.transmissionGate[4] guardBandState:vector ETV
attr enum ON,OFF
attr interpolationmode sample-hold
attr recordingmode vector
attr source guardBandStateChanged
attr title "guard band state"
attr type enum
vector 45 Baseline.detCom.dstt[0].tt[0].macLayer.queue.transmissionGate[5] gateState:vector ETV
attr enum CLOSED,OPEN
attr interpolationmode sample-hold
attr recordingmode vector
attr source gateStateChanged
attr title "gate state"
attr type enum
vector 46 Baseline.detCom.dstt[0].tt[0].macLayer.queue.transmissionGate[5] guardBandState:vector ETV
attr enum ON,OFF
attr interpolationmode sample-hold
attr recordingmode vector
attr source guardBandStateChanged
attr title "guard band state"
attr type enum
vector 47 Baseline.detCom.dstt[0].tt[0].macLayer.queue.transmissionGate[6] gateState:vector ETV
attr enum CLOSED,OPEN
attr interpolationmode sample-hold
attr recordingmode vector
attr source gateStateChanged
attr title "gate state"
attr type enum
vector 48 Baseline.detCom.dstt[0].tt[0].macLayer.queue.transmissionGate[6] guardBandState:vector ETV
attr enum ON,OFF
attr interpolationmode sample-hold
attr recordingmode vector
attr source guardBandStateChanged
attr title "guard band state"
attr type enum
vector 49 Baseline.detCom.dstt[0].tt[0].macLayer.queue.transmissionGate[7] gateState:vector ETV
attr enum CLOSED,OPEN
attr interpolationmode sample-hold
attr recordingmode vector
attr source gateStateChanged
attr title "gate state"
attr type enum
vector 50 Baseline.detCom.dstt[0].tt[0].macLayer.queue.transmissionGate[7] guardBandState:vector ETV
attr enum ON,OFF
attr interpolationmode sample-hold
attr recordingmode vector
attr source guardBandStateChanged
attr title "guard band state"
attr type enum
vector 51 Baseline.detCom.nwtt.eth[0].macLayer.queue.transmissionGate[0] gateState:vector ETV
attr enum CLOSED,OPEN
attr interpolationmode sample-hold
attr recordingmode vector
attr source gateStateChanged
attr title "gate state"
attr type enum
vector 52 Baseline.detCom.nwtt.eth[0].macLayer.queue.transmissionGate[0] guardBandState:vector ETV
attr enum ON,OFF
attr interpolationmode sample-hold
attr recordingmode vector
attr source guardBandStateChanged
attr title "guard band state"
attr type enum
vector 53 Baseline.detCom.nwtt.eth[0].macLayer.queue.transmissionGate[1] gateState:vector ETV
attr enum CLOSED,OPEN
attr interpolationmode sample-hold
attr recordingmode vector
attr source gateStateChanged
attr title "gate state"
attr type enum
vector 54 Baseline.detCom.nwtt.eth[0].macLayer.queue.transmissionGate[1] guardBandState:vector ETV
attr enum ON,OFF
attr interpolationmode sample-hold
attr recordingmode vector
attr source guardBandStateChanged
attr title "guard band state"
attr type enum
vector 55 Baseline.detCom.nwtt.tt[0].macLayer.queue.transmissionGate[0] gateState:vector ETV
attr enum CLOSED,OPEN
attr interpolationmode sample-hold
attr recordingmode vector
attr source gateStateChanged
attr title "gate state"
attr type enum
vector 56 Baseline.detCom.nwtt.tt[0].macLayer.queue.transmissionGate[0] guardBandState:vector ETV
attr enum ON,OFF
attr interpolationmode sample-hold
attr recordingmode vector
attr source guardBandStateChanged
attr title "guard band state"
attr type enum
vector 57 Baseline.detCom.nwtt.tt[0].macLayer.queue.transmissionGate[1] gateState:vector ETV
attr enum CLOSED,OPEN
attr interpolationmode sample-hold
attr recordingmode vector
attr source gateStateChanged
attr title "gate state"
attr type enum
vector 58 Baseline.detCom.nwtt.tt[0].macLayer.queue.transmissionGate[1] guardBandState:vector ETV
attr enum ON,OFF
attr interpolationmode sample-hold
attr recordingmode vector
attr source guardBandStateChanged
attr title "guard band state"
attr type enum
vector 59 Baseline.detCom.nwtt.tt[0].macLayer.queue.transmissionGate[2] gateState:vector ETV
attr enum CLOSED,OPEN
attr interpolationmode sample-hold
attr recordingmode vector
attr source gateStateChanged
attr title "gate state"
attr type enum
vector 60 Baseline.detCom.nwtt.tt[0].macLayer.queue.transmissionGate[2] guardBandState:vector ETV
attr enum ON,OFF
attr interpolationmode sample-hold
attr recordingmode vector
attr source guardBandStateChanged
attr title "guard band state"
attr type enum
vector 61 Baseline.detCom.nwtt.tt[0].macLayer.queue.transmissionGate[3] gateState:vector ETV
attr enum CLOSED,OPEN
attr interpolationmode sample-hold
attr recordingmode vector
attr source gateStateChanged
attr title "gate state"
attr type enum
vector 62 Baseline.detCom.nwtt.tt[0].macLayer.queue.transmissionGate[3] guardBandState:vector ETV
attr enum ON,OFF
attr interpolationmode sample-hold
attr recordingmode vector
attr source guardBandStateChanged
attr title "guard band state"
attr type enum
vector 63 Baseline.detCom.nwtt.tt[0].macLayer.queue.transmissionGate[4] gateState:vector ETV
attr enum CLOSED,OPEN
attr interpolationmode sample-hold
attr recordingmode vector
attr source gateStateChanged
attr title "gate state"
attr type enum
vector 64 Baseline.detCom.nwtt.tt[0].macLayer.queue.transmissionGate[4] guardBandState:vector ETV
attr enum ON,OFF
attr interpolationmode sample-hold
attr recordingmode vector
attr source guardBandStateChanged
attr title "guard band state"
attr type enum
vector 65 Baseline.detCom.nwtt.tt[0].macLayer.queue.transmissionGate[5] gateState:vector ETV
attr enum CLOSED,OPEN
attr interpolationmode sample-hold
attr recordingmode vector
attr source gateStateChanged
attr title "gate state"
attr type enum
vector 66 Baseline.detCom.nwtt.tt[0].macLayer.queue.transmissionGate[5] guardBandState:vector ETV
attr enum ON,OFF
attr interpolationmode sample-hold
attr recordingmode vector
attr source guardBandStateChanged
attr title "guard band state"
attr type enum
vector 67 Baseline.detCom.nwtt.tt[0].macLayer.queue.transmissionGate[6] gateState:vector ETV
attr enum CLOSED,OPEN
attr interpolationmode sample-hold
attr recordingmode vector
attr source gateStateChanged
attr title "gate state"
attr type enum
vector 68 Baseline.detCom.nwtt.tt[0].macLayer.queue.transmissionGate[6] guardBandState:vector ETV
attr enum ON,OFF
attr interpolationmode sample-hold
attr recordingmode vector
attr source guardBandStateChanged
attr title "guard band state"
attr type enum
vector 69 Baseline.detCom.nwtt.tt[0].macLayer.queue.transmissionGate[7] gateState:vector ETV
attr enum CLOSED,OPEN
attr interpolationmode sample-hold
attr recordingmode vector
attr source gateStateChanged
attr title "gate state"
attr type enum
vector 70 Baseline.detCom.nwtt.tt[0].macLayer.queue.transmissionGate[7] guardBandState:vector ETV
attr enum ON,OFF
attr interpolationmode sample-hold
attr recordingmode vector
attr source guardBandStateChanged
attr title "guard band state"
attr type enum
vector 71 Baseline.bridge1.eth[0].macLayer.queue.transmissionGate[0] gateState:vector ETV
attr enum CLOSED,OPEN
attr interpolationmode sample-hold
attr recordingmode vector
attr source gateStateChanged
attr title "gate state"
attr type enum
vector 72 Baseline.bridge1.eth[0].macLayer.queue.transmissionGate[0] guardBandState:vector ETV
attr enum ON,OFF
attr interpolationmode sample-hold
attr recordingmode vector
attr source guardBandStateChanged
attr title "guard band state"
attr type enum
vector 73 Baseline.bridge1.eth[0].macLayer.queue.transmissionGate[1] gateState:vector ETV
attr enum CLOSED,OPEN
attr interpolationmode sample-hold
attr recordingmode vector
attr source gateStateChanged
attr title "gate state"
attr type enum
vector 74 Baseline.bridge1.eth[0].macLayer.queue.transmissionGate[1] guardBandState:vector ETV
attr enum ON,OFF
attr interpolationmode sample-hold
attr recordingmode vector
attr source guardBandStateChanged
attr title "guard band state"
attr type enum
vector 75 Baseline.bridge1.eth[1].macLayer.queue.transmissionGate[0] gateState:vector ETV
attr enum CLOSED,OPEN
attr interpolationmode sample-hold
attr recordingmode vector
attr source gateStateChanged
attr title "gate state"
attr type enum
vector 76 Baseline.bridge1.eth[1].macLayer.queue.transmissionGate[0] guardBandState:vector ETV
attr enum ON,OFF
attr interpolationmode sample-hold
attr recordingmode vector
attr source guardBandStateChanged
attr title "guard band state"
attr type enum
vector 77 Baseline.bridge1.eth[1].macLayer.queue.transmissionGate[1] gateState:vector ETV
attr enum CLOSED,OPEN
attr interpolationmode sample-hold
attr recordingmode vector
attr source gateStateChanged
attr title "gate state"
attr type enum
vector 78 Baseline.bridge1.eth[1].macLayer.queue.transmissionGate[1] guardBandState:vector ETV
attr enum ON,OFF
attr interpolationmode sample-hold
attr recordingmode vector
attr source guardBandStateChanged
attr title "guard band state"
attr type enum
vector 79 Baseline.bridge2.eth[0].macLayer.queue.transmissionGate[0] gateState:vector ETV
attr enum CLOSED,OPEN
attr interpolationmode sample-hold
attr recordingmode vector
attr source gateStateChanged
attr title "gate state"
attr type enum
vector 80 Baseline.bridge2.eth[0].macLayer.queue.transmissionGate[0] guardBandState:vector ETV
attr enum ON,OFF
attr interpolationmode sample-hold
attr recordingmode vector
attr source guardBandStateChanged
attr title "guard band state"
attr type enum
vector 81 Baseline.bridge2.eth[0].macLayer.queue.transmissionGate[1] gateState:vector ETV
attr enum CLOSED,OPEN
attr interpolationmode sample-hold
attr recordingmode vector
attr source gateStateChanged
attr title "gate state"
attr type enum
vector 82 Baseline.bridge2.eth[0].macLayer.queue.transmissionGate[1] guardBandState:vector ETV
attr enum ON,OFF
attr interpolationmode sample-hold
attr recordingmode vector
attr source guardBandStateChanged
attr title "guard band state"
attr type enum
vector 83 Baseline.bridge2.eth[1].macLayer.queue.transmissionGate[0] gateState:vector ETV
attr enum CLOSED,OPEN
attr interpolationmode sample-hold
attr recordingmode vector
attr source gateStateChanged
attr title "gate state"
attr type enum
vector 84 Baseline.bridge2.eth[1].macLayer.queue.transmissionGate[0] guardBandState:vector ETV
attr enum ON,OFF
attr interpolationmode sample-hold
attr recordingmode vector
attr source guardBandStateChanged
attr title "guard band state"
attr type enum
vector 85 Baseline.bridge2.eth[1].macLayer.queue.transmissionGate[1] gateState:vector ETV
attr enum CLOSED,OPEN
attr interpolationmode sample-hold
attr recordingmode vector
attr source gateStateChanged
attr title "gate state"
attr type enum
vector 86 Baseline.bridge2.eth[1].macLayer.queue.transmissionGate[1] guardBandState:vector ETV
attr enum ON,OFF
attr interpolationmode sample-hold
attr recordingmode vector
attr source guardBandStateChanged
attr title "guard band state"
attr type enum
vector 87 Baseline.device2.eth[0].macLayer.queue.transmissionGate[0] gateState:vector ETV
attr enum CLOSED,OPEN
attr interpolationmode sample-hold
attr recordingmode vector
attr source gateStateChanged
attr title "gate state"
attr type enum
vector 88 Baseline.device2.eth[0].macLayer.queue.transmissionGate[0] guardBandState:vector ETV
attr enum ON,OFF
attr interpolationmode sample-hold
attr recordingmode vector
attr source guardBandStateChanged
attr title "guard band state"
attr type enum
vector 89 Baseline.device2.eth[0].macLayer.queue.transmissionGate[1] gateState:vector ETV
attr enum CLOSED,OPEN
attr interpolationmode sample-hold
attr recordingmode vector
attr source gateStateChanged
attr title "gate state"
attr type enum
vector 90 Baseline.device2.eth[0].macLayer.queue.transmissionGate[1] guardBandState:vector ETV
attr enum ON,OFF
attr interpolationmode sample-hold
attr recordingmode vector
attr source guardBandStateChanged
attr title "guard band state"
attr type enum
vector 91 Baseline.device1.app[0].io packetSent:vector(packetBytes) ETV
attr interpolationmode none
attr recordingmode vector(packetBytes)
attr source packetSent
attr title "packets sent, packetBytes"
vector 92 Baseline.device1.udp packetSent:vector(packetBytes) ETV
attr interpolationmode none
attr recordingmode vector(packetBytes)
attr source packetSent
attr title "packets sent, packetBytes"
vector 93 Baseline.device1.bridging.streamIdentifier.identifier incomingPacketLengths:vector ETV
attr interpolationmode none
attr recordingmode vector
attr source "packetLength(merge(packetPushedIn, packetPulledIn))"
attr title "incoming packet lengths"
attr unit b
vector 94 Baseline.device1.bridging.streamIdentifier.identifier outgoingPacketLengths:vector ETV
attr interpolationmode none
attr recordingmode vector
attr source "packetLength(merge(packetPushedOut, packetPulledOut))"
attr title "outgoing packet lengths"
attr unit b
vector 95 Baseline.device1.bridging.streamCoder.encoder incomingPacketLengths:vector ETV
attr interpolationmode none
attr recordingmode vector
attr source "packetLength(merge(packetPushedIn, packetPulledIn))"
attr title "incoming packet lengths"
attr unit b
vector 96 Baseline.device1.bridging.streamCoder.encoder outgoingPacketLengths:vector ETV
attr interpolationmode none
attr recordingmode vector
attr source "packetLength(merge(packetPushedOut, packetPulledOut))"
attr title "outgoing packet lengths"
attr unit b
vector 97 Baseline.device1.ethernet.macHeaderInserter incomingPacketLengths:vector ETV
attr interpolationmode none
attr recordingmode vector
attr source "packetLength(merge(packetPushedIn, packetPulledIn))"
attr title "incoming packet lengths"
attr unit b
vector 98 Baseline.device1.ethernet.macHeaderInserter outgoingPacketLengths:vector ETV
attr interpolationmode none
attr recordingmode vector
attr source "packetLength(merge(packetPushedOut, packetPulledOut))"
attr title "outgoing packet lengths"
attr unit b
vector 99 Baseline.device1.ethernet.paddingInserter incomingPacketLengths:vector ETV
attr interpolationmode none
attr recordingmode vector
attr source "packetLength(merge(packetPushedIn, packetPulledIn))"
attr title "incoming packet lengths"
attr unit b
vector 100 Baseline.device1.ethernet.paddingInserter outgoingPacketLengths:vector ETV
attr interpolationmode none
attr recordingmode vector
attr source "packetLength(merge(packetPushedOut, packetPulledOut))"
attr title "outgoing packet lengths"
attr unit b
vector 101 Baseline.device1.ethernet.fcsInserter incomingPacketLengths:vector ETV
attr interpolationmode none
attr recordingmode vector
attr source "packetLength(merge(packetPushedIn, packetPulledIn))"
attr title "incoming packet lengths"
attr unit b
vector 102 Baseline.device1.ethernet.fcsInserter outgoingPacketLengths:vector ETV
attr interpolationmode none
attr recordingmode vector
attr source "packetLength(merge(packetPushedOut, packetPulledOut))"
attr title "outgoing packet lengths"
attr unit b
vector 103 Baseline.device1.eth[0].macLayer.queue incomingPacketLengths:vector ETV
attr interpolationmode none
attr recordingmode vector
attr source packetLength(localSignal(packetPushStarted))
attr title "incoming packet lengths"
attr unit b
vector 104 Baseline.device1.eth[0].macLayer.queue.classifier packetLengths:vector ETV
attr interpolationmode none
attr recordingmode vector
attr source packetLength(packetPushed)
attr title "packet lengths"
attr unit b
vector 105 Baseline.device1.eth[0].macLayer.queue.queue[0] incomingPacketLengths:vector ETV
attr interpolationmode none
attr recordingmode vector
attr source packetLength(packetPushStarted)
attr title "incoming packet lengths"
attr unit b
vector 106 Baseline.device1.eth[0].macLayer.queue.queue[0] queueLength:vector ETV
attr autoWarmupFilter false
attr interpolationmode sample-hold
attr recordingmode vector
attr source "warmup(atomic(constant0(packetPushEnded) + count(packetPushStarted) - count(packetPulled) - count(packetRemoved) - count(packetDropped)))"
attr title "queue length"
attr unit pk
vector 107 Baseline.device1.eth[0].macLayer.queue.queue[0] queueBitLength:vector ETV
attr autoWarmupFilter false
attr interpolationmode sample-hold
attr recordingmode vector
attr source "warmup(atomic(constant0(packetPushEnded) + sum(packetLength(packetPushStarted)) - sum(packetLength(packetPulled)) - sum(packetLength(packetRemoved)) - sum(packetLength(packetDropped))))"
attr title "queue bit length"
attr unit b
vector 108 Baseline.device1.eth[0].macLayer.queue queueLength:vector ETV
attr autoWarmupFilter false
attr interpolationmode sample-hold
attr recordingmode vector
attr source "warmup(atomic(constant0(localSignal(packetPushEnded)) + count(localSignal(packetPushStarted)) - count(localSignal(packetPulled)) - count(localSignal(packetRemoved)) - count(localSignal(packetDropped))))"
attr title "queue length"
attr unit pk
vector 109 Baseline.device1.eth[0].macLayer.queue queueBitLength:vector ETV
attr autoWarmupFilter false
attr interpolationmode sample-hold
attr recordingmode vector
attr source "warmup(atomic(constant0(localSignal(packetPushEnded)) + sum(packetLength(localSignal(packetPushStarted))) - sum(packetLength(localSignal(packetPulled))) - sum(packetLength(localSignal(packetRemoved))) - sum(packetLength(localSignal(packetDropped)))))"
attr title "queue bit length"
attr unit b
vector 110 Baseline.device1.eth[0].macLayer.queue.queue[0] queueingTime:vector ETV